+ 1 1 6 cbr 210 ------- 0 1.0 6.0 0 0
- 1 1 6 cbr 210 ------- 0 1.0 6.0 0 0
+ 1.00375 1 6 cbr 210 ------- 0 1.0 6.0 1 1
- 1.00375 1 6 cbr 210 ------- 0 1.0 6.0 1 1
+ 1.0075 1 6 cbr 210 ------- 0 1.0 6.0 2 2
- 1.0075 1 6 cbr 210 ------- 0 1.0 6.0 2 2
r 1.01042 1 6 cbr 210 ------- 0 1.0 6.0 0 0
+ 1.01125 1 6 cbr 210 ------- 0 1.0 6.0 3 3
- 1.01125 1 6 cbr 210 ------- 0 1.0 6.0 3 3
r 1.01417 1 6 cbr 210 ------- 0 1.0 6.0 1 1
+ 1.015 1 6 cbr 210 ------- 0 1.0 6.0 4 4
- 1.015 1 6 cbr 210 ------- 0 1.0 6.0 4 4
r 1.01792 1 6 cbr 210 ------- 0 1.0 6.0 2 2
+ 1.01875 1 6 cbr 210 ------- 0 1.0 6.0 5 5
- 1.01875 1 6 cbr 210 ------- 0 1.0 6.0 5 5
r 1.02167 1 6 cbr 210 ------- 0 1.0 6.0 3 3
+ 1.0225 1 6 cbr 210 ------- 0 1.0 6.0 6 6
- 1.0225 1 6 cbr 210 ------- 0 1.0 6.0 6 6
r 1.02542 1 6 cbr 210 ------- 0 1.0 6.0 4 4
+ 1.02625 1 6 cbr 210 ------- 0 1.0 6.0 7 7
- 1.02625 1 6 cbr 210 ------- 0 1.0 6.0 7 7
r 1.02917 1 6 cbr 210 ------- 0 1.0 6.0 5 5
+ 1.03 1 6 cbr 210 ------- 0 1.0 6.0 8 8
- 1.03 1 6 cbr 210 ------- 0 1.0 6.0 8 8
r 1.03292 1 6 cbr 210 ------- 0 1.0 6.0 6 6
+ 1.03375 1 6 cbr 210 ------- 0 1.0 6.0 9 9
- 1.03375 1 6 cbr 210 ------- 0 1.0 6.0 9 9
r 1.03667 1 6 cbr 210 ------- 0 1.0 6.0 7 7
+ 1.0375 1 6 cbr 210 ------- 0 1.0 6.0 10 10
- 1.0375 1 6 cbr 210 ------- 0 1.0 6.0 10 10
r 1.04042 1 6 cbr 210 ------- 0 1.0 6.0 8 8
+ 1.04125 1 6 cbr 210 ------- 0 1.0 6.0 11 11
- 1.04125 1 6 cbr 210 ------- 0 1.0 6.0 11 11
r 1.04417 1 6 cbr 210 ------- 0 1.0 6.0 9 9
+ 1.045 1 6 cbr 210 ------- 0 1.0 6.0 12 12
- 1.045 1 6 cbr 210 ------- 0 1.0 6.0 12 12
r 1.04792 1 6 cbr 210 ------- 0 1.0 6.0 10 10
+ 1.04875 1 6 cbr 210 ------- 0 1.0 6.0 13 13
- 1.04875 1 6 cbr 210 ------- 0 1.0 6.0 13 13
r 1.05167 1 6 cbr 210 ------- 0 1.0 6.0 11 11
+ 1.0525 1 6 cbr 210 ------- 0 1.0 6.0 14 14
- 1.0525 1 6 cbr 210 ------- 0 1.0 6.0 14 14
r 1.05542 1 6 cbr 210 ------- 0 1.0 6.0 12 12
+ 1.05625 1 6 cbr 210 ------- 0 1.0 6.0 15 15
- 1.05625 1 6 cbr 210 ------- 0 1.0 6.0 15 15
r 1.05917 1 6 cbr 210 ------- 0 1.0 6.0 13 13
+ 1.06 1 6 cbr 210 ------- 0 1.0 6.0 16 16
- 1.06 1 6 cbr 210 ------- 0 1.0 6.0 16 16
r 1.06292 1 6 cbr 210 ------- 0 1.0 6.0 14 14
+ 1.06375 1 6 cbr 210 ------- 0 1.0 6.0 17 17
- 1.06375 1 6 cbr 210 ------- 0 1.0 6.0 17 17
r 1.06667 1 6 cbr 210 ------- 0 1.0 6.0 15 15
+ 1.0675 1 6 cbr 210 ------- 0 1.0 6.0 18 18
- 1.0675 1 6 cbr 210 ------- 0 1.0 6.0 18 18
r 1.07042 1 6 cbr 210 ------- 0 1.0 6.0 16 16
+ 1.07125 1 6 cbr 210 ------- 0 1.0 6.0 19 19
- 1.07125 1 6 cbr 210 ------- 0 1.0 6.0 19 19
r 1.07417 1 6 cbr 210 ------- 0 1.0 6.0 17 17
+ 1.075 1 6 cbr 210 ------- 0 1.0 6.0 20 20
- 1.075 1 6 cbr 210 ------- 0 1.0 6.0 20 20
r 1.07792 1 6 cbr 210 ------- 0 1.0 6.0 18 18
+ 1.07875 1 6 cbr 210 ------- 0 1.0 6.0 21 21
- 1.07875 1 6 cbr 210 ------- 0 1.0 6.0 21 21
r 1.08167 1 6 cbr 210 ------- 0 1.0 6.0 19 19
+ 1.0825 1 6 cbr 210 ------- 0 1.0 6.0 22 22
- 1.0825 1 6 cbr 210 ------- 0 1.0 6.0 22 22
r 1.08542 1 6 cbr 210 ------- 0 1.0 6.0 20 20
+ 1.08625 1 6 cbr 210 ------- 0 1.0 6.0 23 23
- 1.08625 1 6 cbr 210 ------- 0 1.0 6.0 23 23
r 1.08917 1 6 cbr 210 ------- 0 1.0 6.0 21 21
+ 1.09 1 6 cbr 210 ------- 0 1.0 6.0 24 24
- 1.09 1 6 cbr 210 ------- 0 1.0 6.0 24 24
r 1.09292 1 6 cbr 210 ------- 0 1.0 6.0 22 22
+ 1.09375 1 6 cbr 210 ------- 0 1.0 6.0 25 25
- 1.09375 1 6 cbr 210 ------- 0 1.0 6.0 25 25
r 1.09667 1 6 cbr 210 ------- 0 1.0 6.0 23 23
+ 1.0975 1 6 cbr 210 ------- 0 1.0 6.0 26 26
- 1.0975 1 6 cbr 210 ------- 0 1.0 6.0 26 26
r 1.10042 1 6 cbr 210 ------- 0 1.0 6.0 24 24
+ 1.10125 1 6 cbr 210 ------- 0 1.0 6.0 27 27
- 1.10125 1 6 cbr 210 ------- 0 1.0 6.0 27 27
r 1.10417 1 6 cbr 210 ------- 0 1.0 6.0 25 25
+ 1.105 1 6 cbr 210 ------- 0 1.0 6.0 28 28
- 1.105 1 6 cbr 210 ------- 0 1.0 6.0 28 28
r 1.10792 1 6 cbr 210 ------- 0 1.0 6.0 26 26
+ 1.10875 1 6 cbr 210 ------- 0 1.0 6.0 29 29
- 1.10875 1 6 cbr 210 ------- 0 1.0 6.0 29 29
r 1.11167 1 6 cbr 210 ------- 0 1.0 6.0 27 27
+ 1.1125 1 6 cbr 210 ------- 0 1.0 6.0 30 30
- 1.1125 1 6 cbr 210 ------- 0 1.0 6.0 30 30
r 1.11542 1 6 cbr 210 ------- 0 1.0 6.0 28 28
+ 1.11625 1 6 cbr 210 ------- 0 1.0 6.0 31 31
- 1.11625 1 6 cbr 210 ------- 0 1.0 6.0 31 31
r 1.11917 1 6 cbr 210 ------- 0 1.0 6.0 29 29
+ 1.12 1 6 cbr 210 ------- 0 1.0 6.0 32 32
- 1.12 1 6 cbr 210 ------- 0 1.0 6.0 32 32
r 1.12292 1 6 cbr 210 ------- 0 1.0 6.0 30 30
+ 1.12375 1 6 cbr 210 ------- 0 1.0 6.0 33 33
- 1.12375 1 6 cbr 210 ------- 0 1.0 6.0 33 33
r 1.12667 1 6 cbr 210 ------- 0 1.0 6.0 31 31
+ 1.1275 1 6 cbr 210 ------- 0 1.0 6.0 34 34
- 1.1275 1 6 cbr 210 ------- 0 1.0 6.0 34 34
r 1.13042 1 6 cbr 210 ------- 0 1.0 6.0 32 32
+ 1.13125 1 6 cbr 210 ------- 0 1.0 6.0 35 35
- 1.13125 1 6 cbr 210 ------- 0 1.0 6.0 35 35
r 1.13417 1 6 cbr 210 ------- 0 1.0 6.0 33 33
+ 1.135 1 6 cbr 210 ------- 0 1.0 6.0 36 36
- 1.135 1 6 cbr 210 ------- 0 1.0 6.0 36 36
r 1.13792 1 6 cbr 210 ------- 0 1.0 6.0 34 34
+ 1.13875 1 6 cbr 210 ------- 0 1.0 6.0 37 37
- 1.13875 1 6 cbr 210 ------- 0 1.0 6.0 37 37
r 1.14167 1 6 cbr 210 ------- 0 1.0 6.0 35 35
+ 1.1425 1 6 cbr 210 ------- 0 1.0 6.0 38 38
- 1.1425 1 6 cbr 210 ------- 0 1.0 6.0 38 38
r 1.14542 1 6 cbr 210 ------- 0 1.0 6.0 36 36
+ 1.14625 1 6 cbr 210 ------- 0 1.0 6.0 39 39
- 1.14625 1 6 cbr 210 ------- 0 1.0 6.0 39 39
r 1.14917 1 6 cbr 210 ------- 0 1.0 6.0 37 37
+ 1.15 1 6 cbr 210 ------- 0 1.0 6.0 40 40
- 1.15 1 6 cbr 210 ------- 0 1.0 6.0 40 40
r 1.15292 1 6 cbr 210 ------- 0 1.0 6.0 38 38
+ 1.15375 1 6 cbr 210 ------- 0 1.0 6.0 41 41
- 1.15375 1 6 cbr 210 ------- 0 1.0 6.0 41 41
r 1.15667 1 6 cbr 210 ------- 0 1.0 6.0 39 39
+ 1.1575 1 6 cbr 210 ------- 0 1.0 6.0 42 42
- 1.1575 1 6 cbr 210 ------- 0 1.0 6.0 42 42
r 1.16042 1 6 cbr 210 ------- 0 1.0 6.0 40 40
+ 1.16125 1 6 cbr 210 ------- 0 1.0 6.0 43 43
- 1.16125 1 6 cbr 210 ------- 0 1.0 6.0 43 43
r 1.16417 1 6 cbr 210 ------- 0 1.0 6.0 41 41
+ 1.165 1 6 cbr 210 ------- 0 1.0 6.0 44 44
- 1.165 1 6 cbr 210 ------- 0 1.0 6.0 44 44
r 1.16792 1 6 cbr 210 ------- 0 1.0 6.0 42 42
+ 1.16875 1 6 cbr 210 ------- 0 1.0 6.0 45 45
- 1.16875 1 6 cbr 210 ------- 0 1.0 6.0 45 45
r 1.17167 1 6 cbr 210 ------- 0 1.0 6.0 43 43
+ 1.1725 1 6 cbr 210 ------- 0 1.0 6.0 46 46
- 1.1725 1 6 cbr 210 ------- 0 1.0 6.0 46 46
r 1.17542 1 6 cbr 210 ------- 0 1.0 6.0 44 44
+ 1.17625 1 6 cbr 210 ------- 0 1.0 6.0 47 47
- 1.17625 1 6 cbr 210 ------- 0 1.0 6.0 47 47
r 1.17917 1 6 cbr 210 ------- 0 1.0 6.0 45 45
+ 1.18 1 6 cbr 210 ------- 0 1.0 6.0 48 48
- 1.18 1 6 cbr 210 ------- 0 1.0 6.0 48 48
r 1.18292 1 6 cbr 210 ------- 0 1.0 6.0 46 46
+ 1.18375 1 6 cbr 210 ------- 0 1.0 6.0 49 49
- 1.18375 1 6 cbr 210 ------- 0 1.0 6.0 49 49
r 1.18667 1 6 cbr 210 ------- 0 1.0 6.0 47 47
+ 1.1875 1 6 cbr 210 ------- 0 1.0 6.0 50 50
- 1.1875 1 6 cbr 210 ------- 0 1.0 6.0 50 50
r 1.19042 1 6 cbr 210 ------- 0 1.0 6.0 48 48
+ 1.19125 1 6 cbr 210 ------- 0 1.0 6.0 51 51
- 1.19125 1 6 cbr 210 ------- 0 1.0 6.0 51 51
r 1.19417 1 6 cbr 210 ------- 0 1.0 6.0 49 49
+ 1.195 1 6 cbr 210 ------- 0 1.0 6.0 52 52
- 1.195 1 6 cbr 210 ------- 0 1.0 6.0 52 52
r 1.19792 1 6 cbr 210 ------- 0 1.0 6.0 50 50
+ 1.19875 1 6 cbr 210 ------- 0 1.0 6.0 53 53
- 1.19875 1 6 cbr 210 ------- 0 1.0 6.0 53 53
r 1.20167 1 6 cbr 210 ------- 0 1.0 6.0 51 51
+ 1.2025 1 6 cbr 210 ------- 0 1.0 6.0 54 54
- 1.2025 1 6 cbr 210 ------- 0 1.0 6.0 54 54
r 1.20542 1 6 cbr 210 ------- 0 1.0 6.0 52 52
+ 1.20625 1 6 cbr 210 ------- 0 1.0 6.0 55 55
- 1.20625 1 6 cbr 210 ------- 0 1.0 6.0 55 55
r 1.20917 1 6 cbr 210 ------- 0 1.0 6.0 53 53
+ 1.21 1 6 cbr 210 ------- 0 1.0 6.0 56 56
- 1.21 1 6 cbr 210 ------- 0 1.0 6.0 56 56
r 1.21292 1 6 cbr 210 ------- 0 1.0 6.0 54 54
+ 1.21375 1 6 cbr 210 ------- 0 1.0 6.0 57 57
- 1.21375 1 6 cbr 210 ------- 0 1.0 6.0 57 57
r 1.21667 1 6 cbr 210 ------- 0 1.0 6.0 55 55
+ 1.2175 1 6 cbr 210 ------- 0 1.0 6.0 58 58
- 1.2175 1 6 cbr 210 ------- 0 1.0 6.0 58 58
r 1.22042 1 6 cbr 210 ------- 0 1.0 6.0 56 56
+ 1.22125 1 6 cbr 210 ------- 0 1.0 6.0 59 59
- 1.22125 1 6 cbr 210 ------- 0 1.0 6.0 59 59
r 1.22417 1 6 cbr 210 ------- 0 1.0 6.0 57 57
+ 1.225 1 6 cbr 210 ------- 0 1.0 6.0 60 60
- 1.225 1 6 cbr 210 ------- 0 1.0 6.0 60 60
r 1.22792 1 6 cbr 210 ------- 0 1.0 6.0 58 58
+ 1.22875 1 6 cbr 210 ------- 0 1.0 6.0 61 61
- 1.22875 1 6 cbr 210 ------- 0 1.0 6.0 61 61
r 1.23167 1 6 cbr 210 ------- 0 1.0 6.0 59 59
+ 1.2325 1 6 cbr 210 ------- 0 1.0 6.0 62 62
- 1.2325 1 6 cbr 210 ------- 0 1.0 6.0 62 62
r 1.23542 1 6 cbr 210 ------- 0 1.0 6.0 60 60
+ 1.23625 1 6 cbr 210 ------- 0 1.0 6.0 63 63
- 1.23625 1 6 cbr 210 ------- 0 1.0 6.0 63 63
r 1.23917 1 6 cbr 210 ------- 0 1.0 6.0 61 61
+ 1.24 1 6 cbr 210 ------- 0 1.0 6.0 64 64
- 1.24 1 6 cbr 210 ------- 0 1.0 6.0 64 64
r 1.24292 1 6 cbr 210 ------- 0 1.0 6.0 62 62
+ 1.24375 1 6 cbr 210 ------- 0 1.0 6.0 65 65
- 1.24375 1 6 cbr 210 ------- 0 1.0 6.0 65 65
r 1.24667 1 6 cbr 210 ------- 0 1.0 6.0 63 63
+ 1.2475 1 6 cbr 210 ------- 0 1.0 6.0 66 66
- 1.2475 1 6 cbr 210 ------- 0 1.0 6.0 66 66
r 1.25042 1 6 cbr 210 ------- 0 1.0 6.0 64 64
+ 1.25125 1 6 cbr 210 ------- 0 1.0 6.0 67 67
- 1.25125 1 6 cbr 210 ------- 0 1.0 6.0 67 67
r 1.25417 1 6 cbr 210 ------- 0 1.0 6.0 65 65
+ 1.255 1 6 cbr 210 ------- 0 1.0 6.0 68 68
- 1.255 1 6 cbr 210 ------- 0 1.0 6.0 68 68
r 1.25792 1 6 cbr 210 ------- 0 1.0 6.0 66 66
+ 1.25875 1 6 cbr 210 ------- 0 1.0 6.0 69 69
- 1.25875 1 6 cbr 210 ------- 0 1.0 6.0 69 69
r 1.26167 1 6 cbr 210 ------- 0 1.0 6.0 67 67
+ 1.2625 1 6 cbr 210 ------- 0 1.0 6.0 70 70
- 1.2625 1 6 cbr 210 ------- 0 1.0 6.0 70 70
r 1.26542 1 6 cbr 210 ------- 0 1.0 6.0 68 68
+ 1.26625 1 6 cbr 210 ------- 0 1.0 6.0 71 71
- 1.26625 1 6 cbr 210 ------- 0 1.0 6.0 71 71
r 1.26917 1 6 cbr 210 ------- 0 1.0 6.0 69 69
+ 1.27 1 6 cbr 210 ------- 0 1.0 6.0 72 72
- 1.27 1 6 cbr 210 ------- 0 1.0 6.0 72 72
r 1.27292 1 6 cbr 210 ------- 0 1.0 6.0 70 70
+ 1.27375 1 6 cbr 210 ------- 0 1.0 6.0 73 73
- 1.27375 1 6 cbr 210 ------- 0 1.0 6.0 73 73
r 1.27667 1 6 cbr 210 ------- 0 1.0 6.0 71 71
+ 1.2775 1 6 cbr 210 ------- 0 1.0 6.0 74 74
- 1.2775 1 6 cbr 210 ------- 0 1.0 6.0 74 74
r 1.28042 1 6 cbr 210 ------- 0 1.0 6.0 72 72
+ 1.28125 1 6 cbr 210 ------- 0 1.0 6.0 75 75
- 1.28125 1 6 cbr 210 ------- 0 1.0 6.0 75 75
r 1.28417 1 6 cbr 210 ------- 0 1.0 6.0 73 73
+ 1.285 1 6 cbr 210 ------- 0 1.0 6.0 76 76
- 1.285 1 6 cbr 210 ------- 0 1.0 6.0 76 76
r 1.28792 1 6 cbr 210 ------- 0 1.0 6.0 74 74
+ 1.28875 1 6 cbr 210 ------- 0 1.0 6.0 77 77
- 1.28875 1 6 cbr 210 ------- 0 1.0 6.0 77 77
r 1.29167 1 6 cbr 210 ------- 0 1.0 6.0 75 75
+ 1.2925 1 6 cbr 210 ------- 0 1.0 6.0 78 78
- 1.2925 1 6 cbr 210 ------- 0 1.0 6.0 78 78
r 1.29542 1 6 cbr 210 ------- 0 1.0 6.0 76 76
+ 1.29625 1 6 cbr 210 ------- 0 1.0 6.0 79 79
- 1.29625 1 6 cbr 210 ------- 0 1.0 6.0 79 79
r 1.29917 1 6 cbr 210 ------- 0 1.0 6.0 77 77
+ 1.3 1 6 cbr 210 ------- 0 1.0 6.0 80 80
- 1.3 1 6 cbr 210 ------- 0 1.0 6.0 80 80
r 1.30292 1 6 cbr 210 ------- 0 1.0 6.0 78 78
+ 1.30375 1 6 cbr 210 ------- 0 1.0 6.0 81 81
- 1.30375 1 6 cbr 210 ------- 0 1.0 6.0 81 81
r 1.30667 1 6 cbr 210 ------- 0 1.0 6.0 79 79
+ 1.3075 1 6 cbr 210 ------- 0 1.0 6.0 82 82
- 1.3075 1 6 cbr 210 ------- 0 1.0 6.0 82 82
r 1.31042 1 6 cbr 210 ------- 0 1.0 6.0 80 80
+ 1.31125 1 6 cbr 210 ------- 0 1.0 6.0 83 83
- 1.31125 1 6 cbr 210 ------- 0 1.0 6.0 83 83
r 1.31417 1 6 cbr 210 ------- 0 1.0 6.0 81 81
+ 1.315 1 6 cbr 210 ------- 0 1.0 6.0 84 84
- 1.315 1 6 cbr 210 ------- 0 1.0 6.0 84 84
r 1.31792 1 6 cbr 210 ------- 0 1.0 6.0 82 82
+ 1.31875 1 6 cbr 210 ------- 0 1.0 6.0 85 85
- 1.31875 1 6 cbr 210 ------- 0 1.0 6.0 85 85
r 1.32167 1 6 cbr 210 ------- 0 1.0 6.0 83 83
+ 1.3225 1 6 cbr 210 ------- 0 1.0 6.0 86 86
- 1.3225 1 6 cbr 210 ------- 0 1.0 6.0 86 86
r 1.32542 1 6 cbr 210 ------- 0 1.0 6.0 84 84
+ 1.32625 1 6 cbr 210 ------- 0 1.0 6.0 87 87
- 1.32625 1 6 cbr 210 ------- 0 1.0 6.0 87 87
r 1.32917 1 6 cbr 210 ------- 0 1.0 6.0 85 85
+ 1.33 1 6 cbr 210 ------- 0 1.0 6.0 88 88
- 1.33 1 6 cbr 210 ------- 0 1.0 6.0 88 88
r 1.33292 1 6 cbr 210 ------- 0 1.0 6.0 86 86
+ 1.33375 1 6 cbr 210 ------- 0 1.0 6.0 89 89
- 1.33375 1 6 cbr 210 ------- 0 1.0 6.0 89 89
r 1.33667 1 6 cbr 210 ------- 0 1.0 6.0 87 87
+ 1.3375 1 6 cbr 210 ------- 0 1.0 6.0 90 90
- 1.3375 1 6 cbr 210 ------- 0 1.0 6.0 90 90
r 1.34042 1 6 cbr 210 ------- 0 1.0 6.0 88 88
+ 1.34125 1 6 cbr 210 ------- 0 1.0 6.0 91 91
- 1.34125 1 6 cbr 210 ------- 0 1.0 6.0 91 91
r 1.34417 1 6 cbr 210 ------- 0 1.0 6.0 89 89
+ 1.345 1 6 cbr 210 ------- 0 1.0 6.0 92 92
- 1.345 1 6 cbr 210 ------- 0 1.0 6.0 92 92
r 1.34792 1 6 cbr 210 ------- 0 1.0 6.0 90 90
+ 1.34875 1 6 cbr 210 ------- 0 1.0 6.0 93 93
- 1.34875 1 6 cbr 210 ------- 0 1.0 6.0 93 93
r 1.35167 1 6 cbr 210 ------- 0 1.0 6.0 91 91
+ 1.3525 1 6 cbr 210 ------- 0 1.0 6.0 94 94
- 1.3525 1 6 cbr 210 ------- 0 1.0 6.0 94 94
r 1.35542 1 6 cbr 210 ------- 0 1.0 6.0 92 92
+ 1.35625 1 6 cbr 210 ------- 0 1.0 6.0 95 95
- 1.35625 1 6 cbr 210 ------- 0 1.0 6.0 95 95
r 1.35917 1 6 cbr 210 ------- 0 1.0 6.0 93 93
+ 1.36 1 6 cbr 210 ------- 0 1.0 6.0 96 96
- 1.36 1 6 cbr 210 ------- 0 1.0 6.0 96 96
r 1.36292 1 6 cbr 210 ------- 0 1.0 6.0 94 94
+ 1.36375 1 6 cbr 210 ------- 0 1.0 6.0 97 97
- 1.36375 1 6 cbr 210 ------- 0 1.0 6.0 97 97
r 1.36667 1 6 cbr 210 ------- 0 1.0 6.0 95 95
+ 1.3675 1 6 cbr 210 ------- 0 1.0 6.0 98 98
- 1.3675 1 6 cbr 210 ------- 0 1.0 6.0 98 98
r 1.37042 1 6 cbr 210 ------- 0 1.0 6.0 96 96
+ 1.37125 1 6 cbr 210 ------- 0 1.0 6.0 99 99
- 1.37125 1 6 cbr 210 ------- 0 1.0 6.0 99 99
r 1.37417 1 6 cbr 210 ------- 0 1.0 6.0 97 97
+ 1.375 1 6 cbr 210 ------- 0 1.0 6.0 100 100
- 1.375 1 6 cbr 210 ------- 0 1.0 6.0 100 100
r 1.37792 1 6 cbr 210 ------- 0 1.0 6.0 98 98
+ 1.37875 1 6 cbr 210 ------- 0 1.0 6.0 101 101
- 1.37875 1 6 cbr 210 ------- 0 1.0 6.0 101 101
r 1.38167 1 6 cbr 210 ------- 0 1.0 6.0 99 99
+ 1.3825 1 6 cbr 210 ------- 0 1.0 6.0 102 102
- 1.3825 1 6 cbr 210 ------- 0 1.0 6.0 102 102
r 1.38542 1 6 cbr 210 ------- 0 1.0 6.0 100 100
+ 1.38625 1 6 cbr 210 ------- 0 1.0 6.0 103 103
- 1.38625 1 6 cbr 210 ------- 0 1.0 6.0 103 103
r 1.38917 1 6 cbr 210 ------- 0 1.0 6.0 101 101
+ 1.39 1 6 cbr 210 ------- 0 1.0 6.0 104 104
- 1.39 1 6 cbr 210 ------- 0 1.0 6.0 104 104
r 1.39292 1 6 cbr 210 ------- 0 1.0 6.0 102 102
+ 1.39375 1 6 cbr 210 ------- 0 1.0 6.0 105 105
- 1.39375 1 6 cbr 210 ------- 0 1.0 6.0 105 105
r 1.39667 1 6 cbr 210 ------- 0 1.0 6.0 103 103
+ 1.3975 1 6 cbr 210 ------- 0 1.0 6.0 106 106
- 1.3975 1 6 cbr 210 ------- 0 1.0 6.0 106 106
r 1.40042 1 6 cbr 210 ------- 0 1.0 6.0 104 104
+ 1.40125 1 6 cbr 210 ------- 0 1.0 6.0 107 107
- 1.40125 1 6 cbr 210 ------- 0 1.0 6.0 107 107
r 1.40417 1 6 cbr 210 ------- 0 1.0 6.0 105 105
+ 1.405 1 6 cbr 210 ------- 0 1.0 6.0 108 108
- 1.405 1 6 cbr 210 ------- 0 1.0 6.0 108 108
r 1.40792 1 6 cbr 210 ------- 0 1.0 6.0 106 106
+ 1.40875 1 6 cbr 210 ------- 0 1.0 6.0 109 109
- 1.40875 1 6 cbr 210 ------- 0 1.0 6.0 109 109
r 1.41167 1 6 cbr 210 ------- 0 1.0 6.0 107 107
+ 1.4125 1 6 cbr 210 ------- 0 1.0 6.0 110 110
- 1.4125 1 6 cbr 210 ------- 0 1.0 6.0 110 110
r 1.41542 1 6 cbr 210 ------- 0 1.0 6.0 108 108
+ 1.41625 1 6 cbr 210 ------- 0 1.0 6.0 111 111
- 1.41625 1 6 cbr 210 ------- 0 1.0 6.0 111 111
r 1.41917 1 6 cbr 210 ------- 0 1.0 6.0 109 109
+ 1.42 1 6 cbr 210 ------- 0 1.0 6.0 112 112
- 1.42 1 6 cbr 210 ------- 0 1.0 6.0 112 112
r 1.42292 1 6 cbr 210 ------- 0 1.0 6.0 110 110
+ 1.42375 1 6 cbr 210 ------- 0 1.0 6.0 113 113
- 1.42375 1 6 cbr 210 ------- 0 1.0 6.0 113 113
r 1.42667 1 6 cbr 210 ------- 0 1.0 6.0 111 111
+ 1.4275 1 6 cbr 210 ------- 0 1.0 6.0 114 114
- 1.4275 1 6 cbr 210 ------- 0 1.0 6.0 114 114
r 1.43042 1 6 cbr 210 ------- 0 1.0 6.0 112 112
+ 1.43125 1 6 cbr 210 ------- 0 1.0 6.0 115 115
- 1.43125 1 6 cbr 210 ------- 0 1.0 6.0 115 115
r 1.43417 1 6 cbr 210 ------- 0 1.0 6.0 113 113
+ 1.435 1 6 cbr 210 ------- 0 1.0 6.0 116 116
- 1.435 1 6 cbr 210 ------- 0 1.0 6.0 116 116
r 1.43792 1 6 cbr 210 ------- 0 1.0 6.0 114 114
+ 1.43875 1 6 cbr 210 ------- 0 1.0 6.0 117 117
- 1.43875 1 6 cbr 210 ------- 0 1.0 6.0 117 117
r 1.44167 1 6 cbr 210 ------- 0 1.0 6.0 115 115
+ 1.4425 1 6 cbr 210 ------- 0 1.0 6.0 118 118
- 1.4425 1 6 cbr 210 ------- 0 1.0 6.0 118 118
r 1.44542 1 6 cbr 210 ------- 0 1.0 6.0 116 116
+ 1.44625 1 6 cbr 210 ------- 0 1.0 6.0 119 119
- 1.44625 1 6 cbr 210 ------- 0 1.0 6.0 119 119
r 1.44917 1 6 cbr 210 ------- 0 1.0 6.0 117 117
+ 1.45 1 6 cbr 210 ------- 0 1.0 6.0 120 120
- 1.45 1 6 cbr 210 ------- 0 1.0 6.0 120 120
r 1.45292 1 6 cbr 210 ------- 0 1.0 6.0 118 118
+ 1.45375 1 6 cbr 210 ------- 0 1.0 6.0 121 121
- 1.45375 1 6 cbr 210 ------- 0 1.0 6.0 121 121
r 1.45667 1 6 cbr 210 ------- 0 1.0 6.0 119 119
+ 1.4575 1 6 cbr 210 ------- 0 1.0 6.0 122 122
- 1.4575 1 6 cbr 210 ------- 0 1.0 6.0 122 122
r 1.46042 1 6 cbr 210 ------- 0 1.0 6.0 120 120
+ 1.46125 1 6 cbr 210 ------- 0 1.0 6.0 123 123
- 1.46125 1 6 cbr 210 ------- 0 1.0 6.0 123 123
r 1.46417 1 6 cbr 210 ------- 0 1.0 6.0 121 121
+ 1.465 1 6 cbr 210 ------- 0 1.0 6.0 124 124
- 1.465 1 6 cbr 210 ------- 0 1.0 6.0 124 124
r 1.46792 1 6 cbr 210 ------- 0 1.0 6.0 122 122
+ 1.46875 1 6 cbr 210 ------- 0 1.0 6.0 125 125
- 1.46875 1 6 cbr 210 ------- 0 1.0 6.0 125 125
r 1.47167 1 6 cbr 210 ------- 0 1.0 6.0 123 123
+ 1.4725 1 6 cbr 210 ------- 0 1.0 6.0 126 126
- 1.4725 1 6 cbr 210 ------- 0 1.0 6.0 126 126
r 1.47542 1 6 cbr 210 ------- 0 1.0 6.0 124 124
+ 1.47625 1 6 cbr 210 ------- 0 1.0 6.0 127 127
- 1.47625 1 6 cbr 210 ------- 0 1.0 6.0 127 127
r 1.47917 1 6 cbr 210 ------- 0 1.0 6.0 125 125
+ 1.48 1 6 cbr 210 ------- 0 1.0 6.0 128 128
- 1.48 1 6 cbr 210 ------- 0 1.0 6.0 128 128
r 1.48292 1 6 cbr 210 ------- 0 1.0 6.0 126 126
+ 1.48375 1 6 cbr 210 ------- 0 1.0 6.0 129 129
- 1.48375 1 6 cbr 210 ------- 0 1.0 6.0 129 129
r 1.48667 1 6 cbr 210 ------- 0 1.0 6.0 127 127
+ 1.4875 1 6 cbr 210 ------- 0 1.0 6.0 130 130
- 1.4875 1 6 cbr 210 ------- 0 1.0 6.0 130 130
r 1.49042 1 6 cbr 210 ------- 0 1.0 6.0 128 128
+ 1.49125 1 6 cbr 210 ------- 0 1.0 6.0 131 131
- 1.49125 1 6 cbr 210 ------- 0 1.0 6.0 131 131
r 1.49417 1 6 cbr 210 ------- 0 1.0 6.0 129 129
+ 1.495 1 6 cbr 210 ------- 0 1.0 6.0 132 132
- 1.495 1 6 cbr 210 ------- 0 1.0 6.0 132 132
r 1.49792 1 6 cbr 210 ------- 0 1.0 6.0 130 130
+ 1.49875 1 6 cbr 210 ------- 0 1.0 6.0 133 133
- 1.49875 1 6 cbr 210 ------- 0 1.0 6.0 133 133
r 1.50167 1 6 cbr 210 ------- 0 1.0 6.0 131 131
+ 1.5025 1 6 cbr 210 ------- 0 1.0 6.0 134 134
- 1.5025 1 6 cbr 210 ------- 0 1.0 6.0 134 134
r 1.50542 1 6 cbr 210 ------- 0 1.0 6.0 132 132
+ 1.50625 1 6 cbr 210 ------- 0 1.0 6.0 135 135
- 1.50625 1 6 cbr 210 ------- 0 1.0 6.0 135 135
r 1.50917 1 6 cbr 210 ------- 0 1.0 6.0 133 133
+ 1.51 1 6 cbr 210 ------- 0 1.0 6.0 136 136
- 1.51 1 6 cbr 210 ------- 0 1.0 6.0 136 136
r 1.51292 1 6 cbr 210 ------- 0 1.0 6.0 134 134
+ 1.51375 1 6 cbr 210 ------- 0 1.0 6.0 137 137
- 1.51375 1 6 cbr 210 ------- 0 1.0 6.0 137 137
r 1.51667 1 6 cbr 210 ------- 0 1.0 6.0 135 135
+ 1.5175 1 6 cbr 210 ------- 0 1.0 6.0 138 138
- 1.5175 1 6 cbr 210 ------- 0 1.0 6.0 138 138
r 1.52042 1 6 cbr 210 ------- 0 1.0 6.0 136 136
+ 1.52125 1 6 cbr 210 ------- 0 1.0 6.0 139 139
- 1.52125 1 6 cbr 210 ------- 0 1.0 6.0 139 139
r 1.52417 1 6 cbr 210 ------- 0 1.0 6.0 137 137
+ 1.525 1 6 cbr 210 ------- 0 1.0 6.0 140 140
- 1.525 1 6 cbr 210 ------- 0 1.0 6.0 140 140
r 1.52792 1 6 cbr 210 ------- 0 1.0 6.0 138 138
+ 1.52875 1 6 cbr 210 ------- 0 1.0 6.0 141 141
- 1.52875 1 6 cbr 210 ------- 0 1.0 6.0 141 141
r 1.53167 1 6 cbr 210 ------- 0 1.0 6.0 139 139
+ 1.5325 1 6 cbr 210 ------- 0 1.0 6.0 142 142
- 1.5325 1 6 cbr 210 ------- 0 1.0 6.0 142 142
r 1.53542 1 6 cbr 210 ------- 0 1.0 6.0 140 140
+ 1.53625 1 6 cbr 210 ------- 0 1.0 6.0 143 143
- 1.53625 1 6 cbr 210 ------- 0 1.0 6.0 143 143
r 1.53917 1 6 cbr 210 ------- 0 1.0 6.0 141 141
+ 1.54 1 6 cbr 210 ------- 0 1.0 6.0 144 144
- 1.54 1 6 cbr 210 ------- 0 1.0 6.0 144 144
r 1.54292 1 6 cbr 210 ------- 0 1.0 6.0 142 142
+ 1.54375 1 6 cbr 210 ------- 0 1.0 6.0 145 145
- 1.54375 1 6 cbr 210 ------- 0 1.0 6.0 145 145
r 1.54667 1 6 cbr 210 ------- 0 1.0 6.0 143 143
+ 1.5475 1 6 cbr 210 ------- 0 1.0 6.0 146 146
- 1.5475 1 6 cbr 210 ------- 0 1.0 6.0 146 146
r 1.55042 1 6 cbr 210 ------- 0 1.0 6.0 144 144
+ 1.55125 1 6 cbr 210 ------- 0 1.0 6.0 147 147
- 1.55125 1 6 cbr 210 ------- 0 1.0 6.0 147 147
r 1.55417 1 6 cbr 210 ------- 0 1.0 6.0 145 145
+ 1.555 1 6 cbr 210 ------- 0 1.0 6.0 148 148
- 1.555 1 6 cbr 210 ------- 0 1.0 6.0 148 148
r 1.55792 1 6 cbr 210 ------- 0 1.0 6.0 146 146
+ 1.55875 1 6 cbr 210 ------- 0 1.0 6.0 149 149
- 1.55875 1 6 cbr 210 ------- 0 1.0 6.0 149 149
r 1.56167 1 6 cbr 210 ------- 0 1.0 6.0 147 147
+ 1.5625 1 6 cbr 210 ------- 0 1.0 6.0 150 150
- 1.5625 1 6 cbr 210 ------- 0 1.0 6.0 150 150
r 1.56542 1 6 cbr 210 ------- 0 1.0 6.0 148 148
+ 1.56625 1 6 cbr 210 ------- 0 1.0 6.0 151 151
- 1.56625 1 6 cbr 210 ------- 0 1.0 6.0 151 151
r 1.56917 1 6 cbr 210 ------- 0 1.0 6.0 149 149
+ 1.57 1 6 cbr 210 ------- 0 1.0 6.0 152 152
- 1.57 1 6 cbr 210 ------- 0 1.0 6.0 152 152
r 1.57292 1 6 cbr 210 ------- 0 1.0 6.0 150 150
+ 1.57375 1 6 cbr 210 ------- 0 1.0 6.0 153 153
- 1.57375 1 6 cbr 210 ------- 0 1.0 6.0 153 153
r 1.57667 1 6 cbr 210 ------- 0 1.0 6.0 151 151
+ 1.5775 1 6 cbr 210 ------- 0 1.0 6.0 154 154
- 1.5775 1 6 cbr 210 ------- 0 1.0 6.0 154 154
r 1.58042 1 6 cbr 210 ------- 0 1.0 6.0 152 152
+ 1.58125 1 6 cbr 210 ------- 0 1.0 6.0 155 155
- 1.58125 1 6 cbr 210 ------- 0 1.0 6.0 155 155
r 1.58417 1 6 cbr 210 ------- 0 1.0 6.0 153 153
+ 1.585 1 6 cbr 210 ------- 0 1.0 6.0 156 156
- 1.585 1 6 cbr 210 ------- 0 1.0 6.0 156 156
r 1.58792 1 6 cbr 210 ------- 0 1.0 6.0 154 154
+ 1.58875 1 6 cbr 210 ------- 0 1.0 6.0 157 157
- 1.58875 1 6 cbr 210 ------- 0 1.0 6.0 157 157
r 1.59167 1 6 cbr 210 ------- 0 1.0 6.0 155 155
+ 1.5925 1 6 cbr 210 ------- 0 1.0 6.0 158 158
- 1.5925 1 6 cbr 210 ------- 0 1.0 6.0 158 158
r 1.59542 1 6 cbr 210 ------- 0 1.0 6.0 156 156
+ 1.59625 1 6 cbr 210 ------- 0 1.0 6.0 159 159
- 1.59625 1 6 cbr 210 ------- 0 1.0 6.0 159 159
r 1.59917 1 6 cbr 210 ------- 0 1.0 6.0 157 157
+ 1.6 1 6 cbr 210 ------- 0 1.0 6.0 160 160
- 1.6 1 6 cbr 210 ------- 0 1.0 6.0 160 160
r 1.60292 1 6 cbr 210 ------- 0 1.0 6.0 158 158
+ 1.60375 1 6 cbr 210 ------- 0 1.0 6.0 161 161
- 1.60375 1 6 cbr 210 ------- 0 1.0 6.0 161 161
r 1.60667 1 6 cbr 210 ------- 0 1.0 6.0 159 159
+ 1.6075 1 6 cbr 210 ------- 0 1.0 6.0 162 162
- 1.6075 1 6 cbr 210 ------- 0 1.0 6.0 162 162
r 1.61042 1 6 cbr 210 ------- 0 1.0 6.0 160 160
+ 1.61125 1 6 cbr 210 ------- 0 1.0 6.0 163 163
- 1.61125 1 6 cbr 210 ------- 0 1.0 6.0 163 163
r 1.61417 1 6 cbr 210 ------- 0 1.0 6.0 161 161
+ 1.615 1 6 cbr 210 ------- 0 1.0 6.0 164 164
- 1.615 1 6 cbr 210 ------- 0 1.0 6.0 164 164
r 1.61792 1 6 cbr 210 ------- 0 1.0 6.0 162 162
+ 1.61875 1 6 cbr 210 ------- 0 1.0 6.0 165 165
- 1.61875 1 6 cbr 210 ------- 0 1.0 6.0 165 165
r 1.62167 1 6 cbr 210 ------- 0 1.0 6.0 163 163
+ 1.6225 1 6 cbr 210 ------- 0 1.0 6.0 166 166
- 1.6225 1 6 cbr 210 ------- 0 1.0 6.0 166 166
r 1.62542 1 6 cbr 210 ------- 0 1.0 6.0 164 164
+ 1.62625 1 6 cbr 210 ------- 0 1.0 6.0 167 167
- 1.62625 1 6 cbr 210 ------- 0 1.0 6.0 167 167
r 1.62917 1 6 cbr 210 ------- 0 1.0 6.0 165 165
+ 1.63 1 6 cbr 210 ------- 0 1.0 6.0 168 168
- 1.63 1 6 cbr 210 ------- 0 1.0 6.0 168 168
r 1.63292 1 6 cbr 210 ------- 0 1.0 6.0 166 166
+ 1.63375 1 6 cbr 210 ------- 0 1.0 6.0 169 169
- 1.63375 1 6 cbr 210 ------- 0 1.0 6.0 169 169
r 1.63667 1 6 cbr 210 ------- 0 1.0 6.0 167 167
+ 1.6375 1 6 cbr 210 ------- 0 1.0 6.0 170 170
- 1.6375 1 6 cbr 210 ------- 0 1.0 6.0 170 170
r 1.64042 1 6 cbr 210 ------- 0 1.0 6.0 168 168
+ 1.64125 1 6 cbr 210 ------- 0 1.0 6.0 171 171
- 1.64125 1 6 cbr 210 ------- 0 1.0 6.0 171 171
r 1.64417 1 6 cbr 210 ------- 0 1.0 6.0 169 169
+ 1.645 1 6 cbr 210 ------- 0 1.0 6.0 172 172
- 1.645 1 6 cbr 210 ------- 0 1.0 6.0 172 172
r 1.64792 1 6 cbr 210 ------- 0 1.0 6.0 170 170
+ 1.64875 1 6 cbr 210 ------- 0 1.0 6.0 173 173
- 1.64875 1 6 cbr 210 ------- 0 1.0 6.0 173 173
r 1.65167 1 6 cbr 210 ------- 0 1.0 6.0 171 171
+ 1.6525 1 6 cbr 210 ------- 0 1.0 6.0 174 174
- 1.6525 1 6 cbr 210 ------- 0 1.0 6.0 174 174
r 1.65542 1 6 cbr 210 ------- 0 1.0 6.0 172 172
+ 1.65625 1 6 cbr 210 ------- 0 1.0 6.0 175 175
- 1.65625 1 6 cbr 210 ------- 0 1.0 6.0 175 175
r 1.65917 1 6 cbr 210 ------- 0 1.0 6.0 173 173
+ 1.66 1 6 cbr 210 ------- 0 1.0 6.0 176 176
- 1.66 1 6 cbr 210 ------- 0 1.0 6.0 176 176
r 1.66292 1 6 cbr 210 ------- 0 1.0 6.0 174 174
+ 1.66375 1 6 cbr 210 ------- 0 1.0 6.0 177 177
- 1.66375 1 6 cbr 210 ------- 0 1.0 6.0 177 177
r 1.66667 1 6 cbr 210 ------- 0 1.0 6.0 175 175
+ 1.6675 1 6 cbr 210 ------- 0 1.0 6.0 178 178
- 1.6675 1 6 cbr 210 ------- 0 1.0 6.0 178 178
r 1.67042 1 6 cbr 210 ------- 0 1.0 6.0 176 176
+ 1.67125 1 6 cbr 210 ------- 0 1.0 6.0 179 179
- 1.67125 1 6 cbr 210 ------- 0 1.0 6.0 179 179
r 1.67417 1 6 cbr 210 ------- 0 1.0 6.0 177 177
+ 1.675 1 6 cbr 210 ------- 0 1.0 6.0 180 180
- 1.675 1 6 cbr 210 ------- 0 1.0 6.0 180 180
r 1.67792 1 6 cbr 210 ------- 0 1.0 6.0 178 178
+ 1.67875 1 6 cbr 210 ------- 0 1.0 6.0 181 181
- 1.67875 1 6 cbr 210 ------- 0 1.0 6.0 181 181
r 1.68167 1 6 cbr 210 ------- 0 1.0 6.0 179 179
+ 1.6825 1 6 cbr 210 ------- 0 1.0 6.0 182 182
- 1.6825 1 6 cbr 210 ------- 0 1.0 6.0 182 182
r 1.68542 1 6 cbr 210 ------- 0 1.0 6.0 180 180
+ 1.68625 1 6 cbr 210 ------- 0 1.0 6.0 183 183
- 1.68625 1 6 cbr 210 ------- 0 1.0 6.0 183 183
r 1.68917 1 6 cbr 210 ------- 0 1.0 6.0 181 181
+ 1.69 1 6 cbr 210 ------- 0 1.0 6.0 184 184
- 1.69 1 6 cbr 210 ------- 0 1.0 6.0 184 184
r 1.69292 1 6 cbr 210 ------- 0 1.0 6.0 182 182
+ 1.69375 1 6 cbr 210 ------- 0 1.0 6.0 185 185
- 1.69375 1 6 cbr 210 ------- 0 1.0 6.0 185 185
r 1.69667 1 6 cbr 210 ------- 0 1.0 6.0 183 183
+ 1.6975 1 6 cbr 210 ------- 0 1.0 6.0 186 186
- 1.6975 1 6 cbr 210 ------- 0 1.0 6.0 186 186
r 1.70042 1 6 cbr 210 ------- 0 1.0 6.0 184 184
+ 1.70125 1 6 cbr 210 ------- 0 1.0 6.0 187 187
- 1.70125 1 6 cbr 210 ------- 0 1.0 6.0 187 187
r 1.70417 1 6 cbr 210 ------- 0 1.0 6.0 185 185
+ 1.705 1 6 cbr 210 ------- 0 1.0 6.0 188 188
- 1.705 1 6 cbr 210 ------- 0 1.0 6.0 188 188
r 1.70792 1 6 cbr 210 ------- 0 1.0 6.0 186 186
+ 1.70875 1 6 cbr 210 ------- 0 1.0 6.0 189 189
- 1.70875 1 6 cbr 210 ------- 0 1.0 6.0 189 189
r 1.71167 1 6 cbr 210 ------- 0 1.0 6.0 187 187
+ 1.7125 1 6 cbr 210 ------- 0 1.0 6.0 190 190
- 1.7125 1 6 cbr 210 ------- 0 1.0 6.0 190 190
r 1.71542 1 6 cbr 210 ------- 0 1.0 6.0 188 188
+ 1.71625 1 6 cbr 210 ------- 0 1.0 6.0 191 191
- 1.71625 1 6 cbr 210 ------- 0 1.0 6.0 191 191
r 1.71917 1 6 cbr 210 ------- 0 1.0 6.0 189 189
+ 1.72 1 6 cbr 210 ------- 0 1.0 6.0 192 192
- 1.72 1 6 cbr 210 ------- 0 1.0 6.0 192 192
r 1.72292 1 6 cbr 210 ------- 0 1.0 6.0 190 190
+ 1.72375 1 6 cbr 210 ------- 0 1.0 6.0 193 193
- 1.72375 1 6 cbr 210 ------- 0 1.0 6.0 193 193
r 1.72667 1 6 cbr 210 ------- 0 1.0 6.0 191 191
+ 1.7275 1 6 cbr 210 ------- 0 1.0 6.0 194 194
- 1.7275 1 6 cbr 210 ------- 0 1.0 6.0 194 194
r 1.73042 1 6 cbr 210 ------- 0 1.0 6.0 192 192
+ 1.73125 1 6 cbr 210 ------- 0 1.0 6.0 195 195
- 1.73125 1 6 cbr 210 ------- 0 1.0 6.0 195 195
r 1.73417 1 6 cbr 210 ------- 0 1.0 6.0 193 193
+ 1.735 1 6 cbr 210 ------- 0 1.0 6.0 196 196
- 1.735 1 6 cbr 210 ------- 0 1.0 6.0 196 196
r 1.73792 1 6 cbr 210 ------- 0 1.0 6.0 194 194
+ 1.73875 1 6 cbr 210 ------- 0 1.0 6.0 197 197
- 1.73875 1 6 cbr 210 ------- 0 1.0 6.0 197 197
r 1.74167 1 6 cbr 210 ------- 0 1.0 6.0 195 195
+ 1.7425 1 6 cbr 210 ------- 0 1.0 6.0 198 198
- 1.7425 1 6 cbr 210 ------- 0 1.0 6.0 198 198
r 1.74542 1 6 cbr 210 ------- 0 1.0 6.0 196 196
+ 1.74625 1 6 cbr 210 ------- 0 1.0 6.0 199 199
- 1.74625 1 6 cbr 210 ------- 0 1.0 6.0 199 199
r 1.74917 1 6 cbr 210 ------- 0 1.0 6.0 197 197
+ 1.75 1 6 cbr 210 ------- 0 1.0 6.0 200 200
- 1.75 1 6 cbr 210 ------- 0 1.0 6.0 200 200
r 1.75292 1 6 cbr 210 ------- 0 1.0 6.0 198 198
+ 1.75375 1 6 cbr 210 ------- 0 1.0 6.0 201 201
- 1.75375 1 6 cbr 210 ------- 0 1.0 6.0 201 201
r 1.75667 1 6 cbr 210 ------- 0 1.0 6.0 199 199
+ 1.7575 1 6 cbr 210 ------- 0 1.0 6.0 202 202
- 1.7575 1 6 cbr 210 ------- 0 1.0 6.0 202 202
r 1.76042 1 6 cbr 210 ------- 0 1.0 6.0 200 200
+ 1.76125 1 6 cbr 210 ------- 0 1.0 6.0 203 203
- 1.76125 1 6 cbr 210 ------- 0 1.0 6.0 203 203
r 1.76417 1 6 cbr 210 ------- 0 1.0 6.0 201 201
+ 1.765 1 6 cbr 210 ------- 0 1.0 6.0 204 204
- 1.765 1 6 cbr 210 ------- 0 1.0 6.0 204 204
r 1.76792 1 6 cbr 210 ------- 0 1.0 6.0 202 202
+ 1.76875 1 6 cbr 210 ------- 0 1.0 6.0 205 205
- 1.76875 1 6 cbr 210 ------- 0 1.0 6.0 205 205
r 1.77167 1 6 cbr 210 ------- 0 1.0 6.0 203 203
+ 1.7725 1 6 cbr 210 ------- 0 1.0 6.0 206 206
- 1.7725 1 6 cbr 210 ------- 0 1.0 6.0 206 206
r 1.77542 1 6 cbr 210 ------- 0 1.0 6.0 204 204
+ 1.77625 1 6 cbr 210 ------- 0 1.0 6.0 207 207
- 1.77625 1 6 cbr 210 ------- 0 1.0 6.0 207 207
r 1.77917 1 6 cbr 210 ------- 0 1.0 6.0 205 205
+ 1.78 1 6 cbr 210 ------- 0 1.0 6.0 208 208
- 1.78 1 6 cbr 210 ------- 0 1.0 6.0 208 208
r 1.78292 1 6 cbr 210 ------- 0 1.0 6.0 206 206
+ 1.78375 1 6 cbr 210 ------- 0 1.0 6.0 209 209
- 1.78375 1 6 cbr 210 ------- 0 1.0 6.0 209 209
r 1.78667 1 6 cbr 210 ------- 0 1.0 6.0 207 207
+ 1.7875 1 6 cbr 210 ------- 0 1.0 6.0 210 210
- 1.7875 1 6 cbr 210 ------- 0 1.0 6.0 210 210
r 1.79042 1 6 cbr 210 ------- 0 1.0 6.0 208 208
+ 1.79125 1 6 cbr 210 ------- 0 1.0 6.0 211 211
- 1.79125 1 6 cbr 210 ------- 0 1.0 6.0 211 211
r 1.79417 1 6 cbr 210 ------- 0 1.0 6.0 209 209
+ 1.795 1 6 cbr 210 ------- 0 1.0 6.0 212 212
- 1.795 1 6 cbr 210 ------- 0 1.0 6.0 212 212
r 1.79792 1 6 cbr 210 ------- 0 1.0 6.0 210 210
+ 1.79875 1 6 cbr 210 ------- 0 1.0 6.0 213 213
- 1.79875 1 6 cbr 210 ------- 0 1.0 6.0 213 213
r 1.80167 1 6 cbr 210 ------- 0 1.0 6.0 211 211
+ 1.8025 1 6 cbr 210 ------- 0 1.0 6.0 214 214
- 1.8025 1 6 cbr 210 ------- 0 1.0 6.0 214 214
r 1.80542 1 6 cbr 210 ------- 0 1.0 6.0 212 212
+ 1.80625 1 6 cbr 210 ------- 0 1.0 6.0 215 215
- 1.80625 1 6 cbr 210 ------- 0 1.0 6.0 215 215
r 1.80917 1 6 cbr 210 ------- 0 1.0 6.0 213 213